Use Case,Industry,Chemical Formula,Property Overlap,Lithium Properties,Application Properties Needed,Energy Density (Wh/kg),Voltage (V),Cycle Life (cycles),Ionic Conductivity (S/cm),Fast Charging (C rate),Weight (g/cm3),Density Reduction (%),Modulus Increase (%),Melting Point Reduction (%),Thermal Stability (degC),Pressure Performance (psi),Therapeutic Dosage (mg/day),Efficacy Rate (%),Thermal Stability (degC)
Lithium-ion Batteries,"Electronics, Electric Vehicles, Energy Storage","LiCoO2, LiFePO4, Li(NiMnCo)O2","Lithium's high energy density and low weight enable compact, powerful batteries for portable devices and EVs","High energy density (100-265 Wh/kg), low atomic weight, high voltage","High energy storage, long cycle life, fast charging",100-265,3.6-3.7,500-1000,1x10^3-2x10^3,1-3,0.534,,,,,,,,
Aerospace Alloys,"Aerospace, Defense",Li-Al,"Lithium-aluminum alloys offer 7-10% lower density and 10-15% higher modulus, ideal for aircraft parts","Lightweight, high strength when alloyed","High strength-to-weight ratio, fatigue resistance, cryogenic toughness",,,,,,,7-10,10-15,,,5000-8000,,,150-200
Glass and Ceramics,Glass and Ceramic Manufacturing,"Li2O, Li2SiO3, LiAlSiO4","Lithium compounds improve the melting process and final product qualities, reducing energy consumption","Lowers melting point, increases fluidity","Improved efficiency in manufacturing, enhanced product properties",,3.6-3.7,500-1000,1x10^3-2x10^3,,,,,25-30,,,,,150-200
Lubricating Greases,"Automotive, Industrial Machinery","LiOH, LiCO3, Li2CO3",Lithium-based greases offer superior performance in high-temperature and high-pressure environments,"High temperature stability, water resistance","Long-lasting lubrication, performance in extreme conditions",,,,1x10^3-2x10^3,,,,,,200-250,8000-10000,,,200-250
Psychiatric Medication,Pharmaceutical,Li2CO3,Lithium's unique neurological effects make it an essential treatment for certain mental health conditions,Mood-stabilizing properties,Effective treatment for bipolar disorder,,,,,,,,,,,,300-600,50-70,